 Gaussian 16, Revision A.03,
 Gaussian 16:  ES64L-G16RevA.03 25-Dec-2016

 -------------------
 # opt freq hf/3-21g
 -------------------

 -------------------------
 Opt and Freq Calculations
 -------------------------
 Symbolic Z-matrix:
 Charge =  0 Multiplicity = 1

 SCF Done:  E(RHF) =  -154.059456577     A.U. after    9 cycles
 Optimization completed.
    -- Stationary point found.
 Normal termination of Gaussian 16 at Thu Mar  2 17:46:51 2023.

 --------------------------------------------------------------
 #N Geom=AllCheck Guess=TCheck SCRF=Check GenChk RHF/3-21G Freq
 --------------------------------------------------------------

 Structure from the checkpoint file:  "butadiene.chk"
 -------------------------
 Opt and Freq Calculations
 -------------------------
 Charge =  0 Multiplicity = 1

                         Standard orientation:
 ---------------------------------------------------------------------
 Center     Atomic      Atomic             Coordinates (Angstroms)
 Number     Number       Type             X           Y           Z
 ---------------------------------------------------------------------
      1          6           0       -0.613896    0.401557   -0.000021
      2          1           0       -0.481831    1.469071    0.000039
      3          6           0        0.613893   -0.401555   -0.000006
      4          1           0        0.481823   -1.469069    0.000034
      5          6           0        1.830668    0.111261   -0.000007
      6          1           0        1.997762    1.172616    0.000036
      7          6           0       -1.830666   -0.111262   -0.000006
      8          1           0       -2.705337    0.509279    0.000070
      9          1           0       -1.997751   -1.172618    0.000022
     10          1           0        2.705338   -0.509284    0.000044
 ---------------------------------------------------------------------

 SCF Done:  E(RHF) =  -154.059456577     A.U. after    1 cycles

 The electronic state is 1-A.
 Alpha  occ. eigenvalues --  -11.17856 -11.17814 -11.16643 -11.16632  -1.09338
 Alpha  occ. eigenvalues --   -1.00728  -0.82189  -0.75580  -0.64967  -0.64024
 Alpha  occ. eigenvalues --   -0.56176  -0.54248  -0.48466  -0.44795  -0.32513
 Alpha virt. eigenvalues --    0.13181   0.27054   0.28637   0.30001   0.30882
 Alpha virt. eigenvalues --    0.35794   0.37567   0.40572   0.55878   0.56138
 Alpha virt. eigenvalues --    0.61073   0.82969   0.90258   0.96963   0.99780

 Mulliken charges:
               1
     1  C   -0.246776
     2  H    0.230684
     3  C   -0.246776
     4  H    0.230683
     5  C   -0.411887
     6  H    0.210962
     7  C   -0.411887
     8  H    0.217017
     9  H    0.210962
    10  H    0.217017
 Sum of Mulliken charges =   0.00000

 Dipole moment (field-independent basis, Debye):
    X=             -0.0000    Y=              0.0000    Z=              0.0002  Tot=              0.0002
 Quadrupole moment (field-independent basis, Debye-Ang):
   XX=            -22.8549   YY=            -22.7866   ZZ=            -29.3145
   XY=              0.1745   XZ=             -0.0000   YZ=              0.0001

  Exact polarizability:  73.640   8.917  35.996  -0.000   0.000  10.686
 Approx polarizability:  57.318   8.395  31.190  -0.000  -0.000   9.801

                      1                      2                      3
                      A                      A                      A
 Frequencies --    165.1018               333.3951               577.6601
 Red. masses --      2.5053                 2.1739                 2.8188
 Frc consts  --      0.0402                 0.1424                 0.5542
 IR Inten    --      0.1969                 2.4139                 0.0000
 Raman Activ --      0.0000                 0.0000                10.7649

                      4                      5                      6
                      A                      A                      A
 Frequencies --    587.9274               869.1371               949.9379
 Red. masses --      1.0940                 1.5781                 2.0656
 Frc consts  --      0.2228                 0.7024                 1.0982
 IR Inten    --     18.0911                 0.0000                 0.0000
 Raman Activ --      0.0000                31.7329                 1.5671

                      7                      8                      9
                      A                      A                      A
 Frequencies --   1097.0331              1112.4554              1134.8188
 Red. masses --      1.1559                 1.3058                 1.1963
 Frc consts  --      0.8196                 0.9521                 0.9077
 IR Inten    --      0.0000               157.8904                 4.4002
 Raman Activ --      2.0086                 0.0000                 0.0000

                     10                     11                     12
                      A                      A                      A
 Frequencies --   1159.2907              1179.6529              1338.9692
 Red. masses --      1.4254                 1.1373                 1.8855
 Frc consts  --      1.1287                 0.9324                 1.9917
 IR Inten    --      0.0000                23.1376                 0.0000
 Raman Activ --     26.9614                 0.0000                40.5904

                     13                     14                     15
                      A                      A                      A
 Frequencies --   1460.5005              1474.4237              1576.2309
 Red. masses --      1.3001                 1.2923                 1.2843
 Frc consts  --      1.6339                 1.6552                 1.8799
 IR Inten    --      0.0000                 2.3462                 3.2108
 Raman Activ --     72.0744                 0.0000                 0.0000

                     16                     17                     18
                      A                      A                      A
 Frequencies --   1636.2813              1809.3491              1872.9324
 Red. masses --      1.1824                 3.1873                 4.2029
 Frc consts  --      1.8652                 6.1477                 8.6865
 IR Inten    --      0.0000                16.1082                 0.0000
 Raman Activ --     58.7064                 0.0000               272.6876

                     19                     20                     21
                      A                      A                      A
 Frequencies --   3310.2716              3316.2488              3324.0931
 Red. masses --      1.0679                 1.0611                 1.0850
 Frc consts  --      6.8945                 6.8752                 7.0636
 IR Inten    --      0.0000                16.9630                 0.0000
 Raman Activ --     29.8621                 0.0000               238.5244

                     22                     23                     24
                      A                      A                      A
 Frequencies --   3328.6984              3395.6604              3397.0781
 Red. masses --      1.0941                 1.1139                 1.1135
 Frc consts  --      7.1424                 7.5677                 7.5709
 IR Inten    --     11.4070                 0.0001                35.3321
 Raman Activ --      0.0000               162.2545                 0.0003

 - Thermochemistry -
 -------------------
 Temperature   298.150 Kelvin.  Pressure   1.00000 Atm.
 Atom     1 has atomic number  6 and mass  12.00000

 Molecular mass:    54.04695 amu.
 Principal axes and moments of inertia in atomic units:
                           1         2         3
     Eigenvalues --    42.17051 402.61706 444.78757
           X            0.99999   0.00505  -0.00000
           Y           -0.00505   0.99999   0.00000
           Z            0.00000  -0.00000   1.00000
 This molecule is an asymmetric top.
 Rotational symmetry number  1.
 Rotational temperatures (Kelvin)      2.05390     0.21513     0.19473
 Rotational constants (GHZ):          42.79629     4.48253     4.05754
 Zero-point vibrational energy     241688.4 (Joules/Mol)
                                   57.76492 (Kcal/Mol)
 Warning -- explicit consideration of   4 degrees of freedom as
           vibrations may cause significant error
 Vibrational temperatures:    237.54   479.68   831.12   845.90  1250.49
          (Kelvin)           1366.75  1578.39  1600.58  1632.75  1667.96
                             1697.26  1926.48  2101.33  2121.37  2267.84
                             2354.24  2603.25  2694.73  4762.74  4771.34
                             4782.63  4789.25  4885.60  4887.64

 Zero-point correction=                           0.092054 (Hartree/Particle)
 Thermal correction to Energy=                    0.096467
 Thermal correction to Enthalpy=                  0.097411
 Thermal correction to Gibbs Free Energy=         0.065705
 Sum of electronic and zero-point Energies=           -153.967402
 Sum of electronic and thermal Energies=              -153.962989
 Sum of electronic and thermal Enthalpies=            -153.962045
 Sum of electronic and thermal Free Energies=         -153.993751

                     E (Thermal)             CV                S
                      KCal/Mol        Cal/Mol-Kelvin    Cal/Mol-Kelvin
 Total                   60.534             14.272             66.731
 Electronic               0.000              0.000              0.000
 Translational            0.889              2.981             37.884
 Rotational               0.889              2.981             23.539
 Vibrational             58.757              8.311              5.308
 Vibration     1          0.623              1.885              2.491
 Vibration     2          0.715              1.609              1.244
 Vibration     3          0.934              1.080              0.490
 Vibration     4          0.945              1.058              0.471

 Optimization completed.
    -- Stationary point found.
 Normal termination of Gaussian 16 at Thu Mar  2 17:46:52 2023.
